                         Program Version 4.0.1.2 - RELEASE -
|  1> ! PBEh3c Opt Freq
|  2>
|  3> * xyz 0 1
|  4> N        0.0000256672     -0.0003988321      0.2955950548
|  5> H        0.8541181746      0.3919136871     -0.0980772399
|  6> H       -0.7663642185      0.5439373079     -0.0977314116
|  7> H       -0.0877796234     -0.9354521649     -0.0997864032
|  8> *
|  9> %pal
| 10>  nprocs 4
| 11> end
| 12>
| 13>                          ****END OF INPUT****
 Total Charge           Charge          ....    0
 Multiplicity           Mult            ....    1
 Number of Electrons    NEL             ....   10
Dispersion correction           -0.000444535
FINAL SINGLE POINT ENERGY       -56.427900032636
Dispersion correction            ... done
Dispersion correction           -0.000444613
FINAL SINGLE POINT ENERGY       -56.428094259906
Dispersion correction            ... done
Dispersion correction           -0.000444586
FINAL SINGLE POINT ENERGY       -56.428112895591
Dispersion correction            ... done
Dispersion correction           -0.000444555
FINAL SINGLE POINT ENERGY       -56.428121896475
Dispersion correction            ... done
                    ***********************HURRAY********************

CARTESIAN COORDINATES (ANGSTROEM)
---------------------------------
  N     -0.000043   -0.000526    0.283322
  H      0.850687    0.390558   -0.094023
  H     -0.763265    0.542091   -0.093651
  H     -0.087378   -0.932123   -0.095649

 Multiplicity           Mult            ....    1
 Number of Electrons    NEL             ....   10
 Basis Dimension        Dim             ....   21

ORBITAL ENERGIES
----------------

  NO   OCC          E(Eh)            E(eV)
   0   2.0000     -14.595325      -397.1590
   1   2.0000      -0.936079       -25.4720
   2   2.0000      -0.511937       -13.9305
   3   2.0000      -0.511791       -13.9265
   4   2.0000      -0.306010        -8.3270
   5   0.0000       0.142871         3.8877
   6   0.0000       0.226838         6.1726
   7   0.0000       0.226949         6.1756
   8   0.0000       0.761744        20.7281
   9   0.0000       0.762016        20.7355

MULLIKEN ATOMIC CHARGES
-----------------------
   0 N :   -0.944021
   1 H :    0.314694
   2 H :    0.314754
   3 H :    0.314573
Sum of atomic charges:   -0.0000000

LOEWDIN ATOMIC CHARGES
----------------------
   0 N :   -0.648876
   1 H :    0.216293
   2 H :    0.216314
   3 H :    0.216269

  Mayer bond orders larger than 0.1
B(  0-N ,  1-H ) :   0.8803 B(  0-N ,  2-H ) :   0.8803 B(  0-N ,  3-H ) :   0.8804

Dispersion correction           -0.000444554
FINAL SINGLE POINT ENERGY       -56.428121907895

DIPOLE MOMENT
-------------
                                X             Y             Z
Electronic contribution:     -0.00005      -0.00030       0.12547
Nuclear contribution   :      0.00013       0.00162      -0.87407
                        -----------------------------------------
Total Dipole Moment    :      0.00008       0.00133      -0.74860
                        -----------------------------------------
Magnitude (a.u.)       :      0.74860
Magnitude (Debye)      :      1.90279

Dispersion correction in the Hessian             ... done   (      0.9 sec)

VIBRATIONAL FREQUENCIES
-----------------------

   0:         0.00 cm**-1
   1:         0.00 cm**-1
   2:         0.00 cm**-1
   3:         0.00 cm**-1
   4:         0.00 cm**-1
   5:         0.00 cm**-1
   6:      1121.55 cm**-1
   7:      1757.23 cm**-1
   8:      1757.61 cm**-1
   9:      3573.45 cm**-1
  10:      3718.84 cm**-1
  11:      3719.13 cm**-1

IR SPECTRUM
-----------

 Mode    freq (cm**-1)   T**2         TX         TY         TZ
-------------------------------------------------------------------
   6:      1121.55  203.937155  ( -0.010299  -0.026020  14.280629)
   7:      1757.23   22.316438  (  4.675907  -0.672490  -0.009343)
   8:      1757.61   22.293362  (  0.666413   4.674317  -0.004426)
   9:      3573.45    0.092918  (  0.015082   0.020173   0.303781)
  10:      3718.84    1.416799  ( -0.941293  -0.728533   0.002526)
  11:      3719.13    1.438610  ( -0.742133   0.942254   0.002380)

--------------------------
THERMOCHEMISTRY AT 298.15K
--------------------------

Temperature         ... 298.15 K
Pressure            ... 1.00 atm
Total Mass          ... 17.03 AMU

Throughout the following assumptions are being made:
  (1) The electronic state is orbitally nondegenerate
  (2) There are no thermally accessible electronically excited states
  (3) Hindered rotations indicated by low frequency modes are not
      treated as such but are treated as vibrations and this may
      cause some error
  (4) All equations used are the standard statistical mechanics
      equations for an ideal gas
  (5) All vibrations are strictly harmonic

freq.    1121.55  E(vib)   ...       0.01
freq.    1757.23  E(vib)   ...       0.00
freq.    1757.61  E(vib)   ...       0.00
freq.    3573.45  E(vib)   ...       0.00
freq.    3718.84  E(vib)   ...       0.00
freq.    3719.13  E(vib)   ...       0.00

------------
INNER ENERGY
------------

The inner energy is: U= E(el) + E(ZPE) + E(vib) + E(rot) + E(trans)
    E(el)   - is the total energy from the electronic structure calculation
              = E(kin-el) + E(nuc-el) + E(el-el) + E(nuc-nuc)
    E(ZPE)  - the the zero temperature vibrational energy from the frequency calculation
    E(vib)  - the the finite temperature correction to E(ZPE) due to population
              of excited vibrational states
    E(rot)  - is the rotational thermal energy
    E(trans)- is the translational thermal energy

Summary of contributions to the inner energy U:
Electronic energy                ...    -56.42812191 Eh
Zero point energy                ...      0.03564833 Eh      22.37 kcal/mol
Thermal vibrational correction   ...      0.00002623 Eh       0.02 kcal/mol
Thermal rotational correction    ...      0.00141627 Eh       0.89 kcal/mol
Thermal translational correction ...      0.00141627 Eh       0.89 kcal/mol
-----------------------------------------------------------------------
Total thermal energy                    -56.38961480 Eh

Summary of corrections to the electronic energy:
(perhaps to be used in another calculation)
Total thermal correction                  0.00285877 Eh       1.79 kcal/mol
Non-thermal (ZPE) correction              0.03564833 Eh      22.37 kcal/mol
-----------------------------------------------------------------------
Total correction                          0.03850710 Eh      24.16 kcal/mol

--------
ENTHALPY
--------

The enthalpy is H = U + kB*T
                kB is Boltzmann's constant
Total free energy                 ...    -56.38961480 Eh
Thermal Enthalpy correction       ...      0.00094421 Eh       0.59 kcal/mol
-----------------------------------------------------------------------
Total Enthalpy                    ...    -56.38867060 Eh

Vibrational entropy computed according to the QRRHO of S. Grimme
Chem.Eur.J. 2012 18 9955

-------
ENTROPY
-------

The entropy contributions are T*S = T*(S(el)+S(vib)+S(rot)+S(trans)
     S(el)   - electronic entropy
     S(vib)  - vibrational entropy
     S(rot)  - rotational entropy
     S(trans)- translational entropy
The entropies will be listed as mutliplied by the temperature to get
units of energy

Electronic entropy                ...      0.00000000 Eh      0.00 kcal/mol
Vibrational entropy               ...      0.00003085 Eh      0.02 kcal/mol
Rotational entropy                ...      0.00542278 Eh      3.40 kcal/mol
Translational entropy             ...      0.01636425 Eh     10.27 kcal/mol
-----------------------------------------------------------------------
Final entropy term                ...      0.02181788 Eh     13.69 kcal/mol

CAUTION: The rotational entropy is not quite correctly treated here
         because it includes a symmetry number that is not yet correctly
         implemented in ORCA!
For a nonlinear molecule the correct rotational entropy is:
    S(rot) = R*(ln(qrot/sn)+1.5)
    R    = 8.31441 J/mol/K = 1.987191683e-3 kcal/mol/K
    qrot =  208.9255586
    sn is the rotational symmetry number. We have assumed 3 here
       if it is different for your molecule then you should correct
       the printed rotational entropy by manually evaluating the equation
       as given above

For convenience we print out the resulting values for sn=1 - 12:
 sn= 1  qrot/sn=     208.9256 T*S(rot)=     4.05 kcal/mol T*S(tot)=    14.34 kcal/mol
 sn= 2  qrot/sn=     104.4628 T*S(rot)=     3.64 kcal/mol T*S(tot)=    13.93 kcal/mol
 sn= 3  qrot/sn=      69.6419 T*S(rot)=     3.40 kcal/mol T*S(tot)=    13.69 kcal/mol
 sn= 4  qrot/sn=      52.2314 T*S(rot)=     3.23 kcal/mol T*S(tot)=    13.52 kcal/mol
 sn= 5  qrot/sn=      41.7851 T*S(rot)=     3.10 kcal/mol T*S(tot)=    13.39 kcal/mol
 sn= 6  qrot/sn=      34.8209 T*S(rot)=     2.99 kcal/mol T*S(tot)=    13.28 kcal/mol
 sn= 7  qrot/sn=      29.8465 T*S(rot)=     2.90 kcal/mol T*S(tot)=    13.19 kcal/mol
 sn= 8  qrot/sn=      26.1157 T*S(rot)=     2.82 kcal/mol T*S(tot)=    13.11 kcal/mol
 sn= 9  qrot/sn=      23.2140 T*S(rot)=     2.75 kcal/mol T*S(tot)=    13.04 kcal/mol
 sn=10  qrot/sn=      20.8926 T*S(rot)=     2.69 kcal/mol T*S(tot)=    12.98 kcal/mol
 sn=11  qrot/sn=      18.9932 T*S(rot)=     2.63 kcal/mol T*S(tot)=    12.92 kcal/mol
 sn=12  qrot/sn=      17.4105 T*S(rot)=     2.58 kcal/mol T*S(tot)=    12.87 kcal/mol

-------------------
GIBBS FREE ENTHALPY
-------------------

The Gibbs free enthalpy is G = H - T*S

Total enthalpy                    ...    -56.38867060 Eh
Total entropy correction          ...     -0.02181788 Eh    -13.69 kcal/mol
-----------------------------------------------------------------------
Final Gibbs free enthalpy         ...    -56.41048848 Eh

For completeness - the Gibbs free enthalpy minus the electronic energy
G-E(el)                           ...      0.01763343 Eh     11.07 kcal/mol

                             ****ORCA TERMINATED NORMALLY****
TOTAL RUN TIME: 0 days 0 hours 0 minutes 19 seconds 544 msec
