                         Program Version 4.0.1.2 - RELEASE -
|  1> ! PBEh3c OptTS Freq
|  2>
|  3> * xyz 0 1
|  4> N        0.000000000      0.000000000      0.000000000
|  5> H        0.854124880      0.391785031      0.000000000
|  6> H       -0.766358230      0.543801328      0.000000000
|  7> H       -0.087766650     -0.935586361      0.000000000
|  8> *
|  9> %pal
| 10>  nprocs 4
| 11> end
| 12>
| 13>                          ****END OF INPUT****
 Total Charge           Charge          ....    0
 Multiplicity           Mult            ....    1
 Number of Electrons    NEL             ....   10
Dispersion correction           -0.000444412
FINAL SINGLE POINT ENERGY       -56.409362010231
Dispersion correction            ... done
Dispersion correction           -0.000442599
FINAL SINGLE POINT ENERGY       -56.412714692008
Dispersion correction            ... done
Dispersion correction           -0.000443382
FINAL SINGLE POINT ENERGY       -56.418983237400
Dispersion correction            ... done
FINAL SINGLE POINT ENERGY       -56.419402000737
Dispersion correction           -0.000443503
FINAL SINGLE POINT ENERGY       -56.419104841713
Dispersion correction            ... done
Dispersion correction           -0.000443502
FINAL SINGLE POINT ENERGY       -56.419104615005
Dispersion correction            ... done
                    ***********************HURRAY********************

CARTESIAN COORDINATES (ANGSTROEM)
---------------------------------
  N     -0.000002    0.000230    0.000030
  H      0.904489    0.414457    0.000004
  H     -0.811642    0.575511   -0.000024
  H     -0.092844   -0.990198   -0.000010

 Multiplicity           Mult            ....    1
 Number of Electrons    NEL             ....   10
 Basis Dimension        Dim             ....   21

ORBITAL ENERGIES
----------------

  NO   OCC          E(Eh)            E(eV)
   0   2.0000     -14.577895      -396.6847
   1   2.0000      -0.914100       -24.8739
   2   2.0000      -0.528533       -14.3821
   3   2.0000      -0.528356       -14.3773
   4   2.0000      -0.270757        -7.3677
   5   0.0000       0.151577         4.1246
   6   0.0000       0.239025         6.5042
   7   0.0000       0.239035         6.5045
   8   0.0000       0.792578        21.5671
   9   0.0000       0.793590        21.5947

MULLIKEN ATOMIC CHARGES
-----------------------
   0 N :   -1.014944
   1 H :    0.338352
   2 H :    0.338259
   3 H :    0.338333
Sum of atomic charges:    0.0000000

LOEWDIN ATOMIC CHARGES
----------------------
   0 N :   -0.685410
   1 H :    0.228491
   2 H :    0.228474
   3 H :    0.228444

  Mayer bond orders larger than 0.1
B(  0-N ,  1-H ) :   0.8637 B(  0-N ,  2-H ) :   0.8639 B(  0-N ,  3-H ) :   0.8638

Dispersion correction           -0.000443502
FINAL SINGLE POINT ENERGY       -56.419104725083

DIPOLE MOMENT
-------------
                                X             Y             Z
Electronic contribution:     -0.00008       0.00032       0.00000
Nuclear contribution   :      0.00001      -0.00071      -0.00009
                        -----------------------------------------
Total Dipole Moment    :     -0.00007      -0.00039      -0.00009
                        -----------------------------------------
Magnitude (a.u.)       :      0.00041
Magnitude (Debye)      :      0.00104

Dispersion correction in the Hessian             ... done   (      1.0 sec)

VIBRATIONAL FREQUENCIES
-----------------------

   0:         0.00 cm**-1
   1:         0.00 cm**-1
   2:         0.00 cm**-1
   3:         0.00 cm**-1
   4:         0.00 cm**-1
   5:         0.00 cm**-1
   6:      -882.98 cm**-1 ***imaginary mode***
   7:      1636.17 cm**-1
   8:      1636.75 cm**-1
   9:      3733.76 cm**-1
  10:      3942.95 cm**-1
  11:      3943.89 cm**-1

IR SPECTRUM
-----------

 Mode    freq (cm**-1)   T**2         TX         TY         TZ
-------------------------------------------------------------------
   7:      1636.17   46.116341  (  1.593198   6.601368   0.000018)
   8:      1636.75   46.150099  (  6.606930  -1.580686   0.000112)
   9:      3733.76    0.000644  ( -0.010454  -0.023118   0.000486)
  10:      3942.95   49.908806  ( -6.598306  -2.524116  -0.000101)
  11:      3943.89   49.913491  ( -2.535661   6.594234  -0.000047)

--------------------------
THERMOCHEMISTRY AT 298.15K
--------------------------

Temperature         ... 298.15 K
Pressure            ... 1.00 atm
Total Mass          ... 17.03 AMU

Throughout the following assumptions are being made:
  (1) The electronic state is orbitally nondegenerate
  (2) There are no thermally accessible electronically excited states
  (3) Hindered rotations indicated by low frequency modes are not
      treated as such but are treated as vibrations and this may
      cause some error
  (4) All equations used are the standard statistical mechanics
      equations for an ideal gas
  (5) All vibrations are strictly harmonic

freq.    1636.17  E(vib)   ...       0.00
freq.    1636.75  E(vib)   ...       0.00
freq.    3733.76  E(vib)   ...       0.00
freq.    3942.95  E(vib)   ...       0.00
freq.    3943.89  E(vib)   ...       0.00

------------
INNER ENERGY
------------

The inner energy is: U= E(el) + E(ZPE) + E(vib) + E(rot) + E(trans)
    E(el)   - is the total energy from the electronic structure calculation
              = E(kin-el) + E(nuc-el) + E(el-el) + E(nuc-nuc)
    E(ZPE)  - the the zero temperature vibrational energy from the frequency calculation
    E(vib)  - the the finite temperature correction to E(ZPE) due to population
              of excited vibrational states
    E(rot)  - is the rotational thermal energy
    E(trans)- is the translational thermal energy

Summary of contributions to the inner energy U:
Electronic energy                ...    -56.41910473 Eh
Zero point energy                ...      0.03392992 Eh      21.29 kcal/mol
Thermal vibrational correction   ...      0.00000555 Eh       0.00 kcal/mol
Thermal rotational correction    ...      0.00141627 Eh       0.89 kcal/mol
Thermal translational correction ...      0.00141627 Eh       0.89 kcal/mol
-----------------------------------------------------------------------
Total thermal energy                    -56.38233671 Eh

Summary of corrections to the electronic energy:
(perhaps to be used in another calculation)
Total thermal correction                  0.00283809 Eh       1.78 kcal/mol
Non-thermal (ZPE) correction              0.03392992 Eh      21.29 kcal/mol
-----------------------------------------------------------------------
Total correction                          0.03676801 Eh      23.07 kcal/mol

--------
ENTHALPY
--------

The enthalpy is H = U + kB*T
                kB is Boltzmann's constant
Total free energy                 ...    -56.38233671 Eh
Thermal Enthalpy correction       ...      0.00094421 Eh       0.59 kcal/mol
-----------------------------------------------------------------------
Total Enthalpy                    ...    -56.38139250 Eh

Vibrational entropy computed according to the QRRHO of S. Grimme
Chem.Eur.J. 2012 18 9955

-------
ENTROPY
-------

The entropy contributions are T*S = T*(S(el)+S(vib)+S(rot)+S(trans)
     S(el)   - electronic entropy
     S(vib)  - vibrational entropy
     S(rot)  - rotational entropy
     S(trans)- translational entropy
The entropies will be listed as mutliplied by the temperature to get
units of energy

Electronic entropy                ...      0.00000000 Eh      0.00 kcal/mol
Vibrational entropy               ...      0.00000625 Eh      0.00 kcal/mol
Rotational entropy                ...      0.00537086 Eh      3.37 kcal/mol
Translational entropy             ...      0.01636425 Eh     10.27 kcal/mol
-----------------------------------------------------------------------
Final entropy term                ...      0.02174137 Eh     13.64 kcal/mol

CAUTION: The rotational entropy is not quite correctly treated here
         because it includes a symmetry number that is not yet correctly
         implemented in ORCA!
For a nonlinear molecule the correct rotational entropy is:
    S(rot) = R*(ln(qrot/sn)+1.5)
    R    = 8.31441 J/mol/K = 1.987191683e-3 kcal/mol/K
    qrot =  197.7487546
    sn is the rotational symmetry number. We have assumed 3 here
       if it is different for your molecule then you should correct
       the printed rotational entropy by manually evaluating the equation
       as given above

For convenience we print out the resulting values for sn=1 - 12:
 sn= 1  qrot/sn=     197.7488 T*S(rot)=     4.02 kcal/mol T*S(tot)=    14.29 kcal/mol
 sn= 2  qrot/sn=      98.8744 T*S(rot)=     3.61 kcal/mol T*S(tot)=    13.88 kcal/mol
 sn= 3  qrot/sn=      65.9163 T*S(rot)=     3.37 kcal/mol T*S(tot)=    13.64 kcal/mol
 sn= 4  qrot/sn=      49.4372 T*S(rot)=     3.20 kcal/mol T*S(tot)=    13.47 kcal/mol
 sn= 5  qrot/sn=      39.5498 T*S(rot)=     3.07 kcal/mol T*S(tot)=    13.34 kcal/mol
 sn= 6  qrot/sn=      32.9581 T*S(rot)=     2.96 kcal/mol T*S(tot)=    13.23 kcal/mol
 sn= 7  qrot/sn=      28.2498 T*S(rot)=     2.87 kcal/mol T*S(tot)=    13.14 kcal/mol
 sn= 8  qrot/sn=      24.7186 T*S(rot)=     2.79 kcal/mol T*S(tot)=    13.06 kcal/mol
 sn= 9  qrot/sn=      21.9721 T*S(rot)=     2.72 kcal/mol T*S(tot)=    12.99 kcal/mol
 sn=10  qrot/sn=      19.7749 T*S(rot)=     2.66 kcal/mol T*S(tot)=    12.93 kcal/mol
 sn=11  qrot/sn=      17.9772 T*S(rot)=     2.60 kcal/mol T*S(tot)=    12.87 kcal/mol
 sn=12  qrot/sn=      16.4791 T*S(rot)=     2.55 kcal/mol T*S(tot)=    12.82 kcal/mol

-------------------
GIBBS FREE ENTHALPY
-------------------

The Gibbs free enthalpy is G = H - T*S

Total enthalpy                    ...    -56.38139250 Eh
Total entropy correction          ...     -0.02174137 Eh    -13.64 kcal/mol
-----------------------------------------------------------------------
Final Gibbs free enthalpy         ...    -56.40313387 Eh

For completeness - the Gibbs free enthalpy minus the electronic energy
G-E(el)                           ...      0.01597086 Eh     10.02 kcal/mol

                             ****ORCA TERMINATED NORMALLY****
TOTAL RUN TIME: 0 days 0 hours 1 minutes 6 seconds 274 msec
