                         Program Version 4.0.1.2 - RELEASE -
|  1> # pyrrolate.xyz
|  2> ! PBEh3c Opt Freq
|  3>
|  4> * xyz -1 1
|  5> C       -1.114681038      0.000000000      0.362861461
|  6> C       -0.708476572      0.000000000     -0.945114313
|  7> C        0.708476572      0.000000000     -0.945114313
|  8> C        1.114681038      0.000000000      0.362861461
|  9> N        0.000000000      0.000000000      1.144164961
| 10> H       -2.102667851      0.000000000      0.791353672
| 11> H       -1.354836716      0.000000000     -1.807280826
| 12> H        1.354836716      0.000000000     -1.807280826
| 13> H        2.102667851      0.000000000      0.791353672
| 14> *
| 15> %pal
| 16>  nprocs 4
| 17> end
| 18>
| 19>                          ****END OF INPUT****
 Total Charge           Charge          ....   -1
 Multiplicity           Mult            ....    1
 Number of Electrons    NEL             ....   36
Dispersion correction           -0.003697882
FINAL SINGLE POINT ENERGY      -209.100399792510
Dispersion correction            ... done
Dispersion correction           -0.003662754
FINAL SINGLE POINT ENERGY      -209.107567775587
Dispersion correction            ... done
Dispersion correction           -0.003655280
FINAL SINGLE POINT ENERGY      -209.107848446394
Dispersion correction            ... done
FINAL SINGLE POINT ENERGY      -209.107907457704
Dispersion correction           -0.003653821
FINAL SINGLE POINT ENERGY      -209.107924789719
Dispersion correction            ... done
Dispersion correction           -0.003653938
FINAL SINGLE POINT ENERGY      -209.107927250771
Dispersion correction            ... done
                    ***********************HURRAY********************

CARTESIAN COORDINATES (ANGSTROEM)
---------------------------------
  C     -1.068939    0.000000    0.380656
  C     -0.705319   -0.000000   -0.966447
  C      0.705319    0.000000   -0.966447
  C      1.068939   -0.000000    0.380656
  N      0.000000    0.000000    1.201290
  H     -2.078155    0.000000    0.784750
  H     -1.365147   -0.000000   -1.825702
  H      1.365147    0.000000   -1.825702
  H      2.078155   -0.000000    0.784750

 Multiplicity           Mult            ....    1
 Number of Electrons    NEL             ....   36
 Basis Dimension        Dim             ....   83

ORBITAL ENERGIES
----------------

  NO   OCC          E(Eh)            E(eV)
   0   2.0000     -14.373774      -391.1303
   1   2.0000     -10.217447      -278.0309
   2   2.0000     -10.217396      -278.0295
   3   2.0000     -10.202660      -277.6285
   4   2.0000     -10.202169      -277.6151
   5   2.0000      -0.804290       -21.8858
   6   2.0000      -0.602804       -16.4031
   7   2.0000      -0.555833       -15.1250
   8   2.0000      -0.398204       -10.8357
   9   2.0000      -0.384146       -10.4532
  10   2.0000      -0.348080        -9.4717
  11   2.0000      -0.228401        -6.2151
  12   2.0000      -0.212895        -5.7932
  13   2.0000      -0.211593        -5.7578
  14   2.0000      -0.207886        -5.6569
  15   2.0000      -0.085827        -2.3355
  16   2.0000      -0.041288        -1.1235
  17   2.0000      -0.016901        -0.4599
  18   0.0000       0.324033         8.8174
  19   0.0000       0.328665         8.9434
  20   0.0000       0.371957        10.1215
  21   0.0000       0.410678        11.1751
  22   0.0000       0.412038        11.2121

MULLIKEN ATOMIC CHARGES
-----------------------
   0 C :   -0.139594
   1 C :   -0.334500
   2 C :   -0.334500
   3 C :   -0.139594
   4 N :   -0.436604
   5 H :    0.092495
   6 H :    0.099900
   7 H :    0.099900
   8 H :    0.092495
Sum of atomic charges:   -1.0000000

LOEWDIN ATOMIC CHARGES
----------------------
   0 C :   -0.213807
   1 C :   -0.298902
   2 C :   -0.298902
   3 C :   -0.213807
   4 N :   -0.280587
   5 H :    0.070166
   6 H :    0.082837
   7 H :    0.082837
   8 H :    0.070166

  Mayer bond orders larger than 0.1
B(  0-C ,  1-C ) :   1.4346 B(  0-C ,  4-N ) :   1.4864 B(  0-C ,  5-H ) :   0.9462
B(  1-C ,  2-C ) :   1.4088 B(  1-C ,  6-H ) :   0.9393 B(  2-C ,  3-C ) :   1.4346
B(  2-C ,  7-H ) :   0.9393 B(  3-C ,  4-N ) :   1.4864 B(  3-C ,  8-H ) :   0.9462

Dispersion correction           -0.003653981
FINAL SINGLE POINT ENERGY      -209.107927581576

DIPOLE MOMENT
-------------
                                X             Y             Z
Electronic contribution:      0.00000       0.00000       1.39735
Nuclear contribution   :     -0.00000      -0.00000      -1.98389
                        -----------------------------------------
Total Dipole Moment    :      0.00000      -0.00000      -0.58654
                        -----------------------------------------
Magnitude (a.u.)       :      0.58654
Magnitude (Debye)      :      1.49087

Dispersion correction in the Hessian             ... done   (      2.3 sec)

VIBRATIONAL FREQUENCIES
-----------------------

   0:         0.00 cm**-1
   1:         0.00 cm**-1
   2:         0.00 cm**-1
   3:         0.00 cm**-1
   4:         0.00 cm**-1
   5:         0.00 cm**-1
   6:       650.59 cm**-1
   7:       692.34 cm**-1
   8:       719.49 cm**-1
   9:       731.17 cm**-1
  10:       795.14 cm**-1
  11:       821.04 cm**-1
  12:       908.78 cm**-1
  13:       918.77 cm**-1
  14:      1063.73 cm**-1
  15:      1073.70 cm**-1
  16:      1153.15 cm**-1
  17:      1234.88 cm**-1
  18:      1290.67 cm**-1
  19:      1392.78 cm**-1
  20:      1460.77 cm**-1
  21:      1529.85 cm**-1
  22:      1556.15 cm**-1
  23:      3200.73 cm**-1
  24:      3206.20 cm**-1
  25:      3247.45 cm**-1
  26:      3271.03 cm**-1

IR SPECTRUM
-----------

 Mode    freq (cm**-1)   T**2         TX         TY         TZ
-------------------------------------------------------------------
   6:       650.59    0.000000  ( -0.000001  -0.000000   0.000002)
   7:       692.34   74.099704  (  0.000000   8.608119  -0.000001)
   8:       719.49   12.009938  ( -0.000002  -3.465536  -0.000002)
   9:       731.17    0.000000  (  0.000000  -0.000001   0.000002)
  10:       795.14   29.036830  (  0.000003  -5.388583   0.000000)
  11:       821.04    0.000000  (  0.000001   0.000002  -0.000001)
  12:       908.78    8.021675  ( -0.000003   0.000000  -2.832256)
  13:       918.77    0.653187  (  0.808200  -0.000001  -0.000009)
  14:      1063.73   33.934609  ( -0.000005   0.000000   5.825342)
  15:      1073.70   10.617673  (  3.258477   0.000000   0.000007)
  16:      1153.15   12.213897  ( -0.000001  -0.000000  -3.494839)
  17:      1234.88    1.887458  ( -0.000001   0.000000   1.373848)
  18:      1290.67    0.925600  ( -0.962081  -0.000000   0.000000)
  19:      1392.78    2.522425  (  1.588214   0.000000   0.000000)
  20:      1460.77    1.252672  ( -0.000000  -0.000000  -1.119228)
  21:      1529.85    2.453953  (  1.566510   0.000000  -0.000002)
  22:      1556.15   20.181511  ( -0.000001  -0.000000  -4.492384)
  23:      3200.73   94.926365  ( -9.743016   0.000001  -0.000001)
  24:      3206.20   41.417896  (  0.000002   0.000000  -6.435674)
  25:      3247.45   91.011398  (  9.539989   0.000000   0.000001)
  26:      3271.03   40.446714  ( -0.000000  -0.000000  -6.359773)

--------------------------
THERMOCHEMISTRY AT 298.15K
--------------------------

Temperature         ... 298.15 K
Pressure            ... 1.00 atm
Total Mass          ... 66.08 AMU

Throughout the following assumptions are being made:
  (1) The electronic state is orbitally nondegenerate
  (2) There are no thermally accessible electronically excited states
  (3) Hindered rotations indicated by low frequency modes are not
      treated as such but are treated as vibrations and this may
      cause some error
  (4) All equations used are the standard statistical mechanics
      equations for an ideal gas
  (5) All vibrations are strictly harmonic

freq.     650.59  E(vib)   ...       0.08
freq.     692.34  E(vib)   ...       0.07
freq.     719.49  E(vib)   ...       0.07
freq.     731.17  E(vib)   ...       0.06
freq.     795.14  E(vib)   ...       0.05
freq.     821.04  E(vib)   ...       0.05
freq.     908.78  E(vib)   ...       0.03
freq.     918.77  E(vib)   ...       0.03
freq.    1063.73  E(vib)   ...       0.02
freq.    1073.70  E(vib)   ...       0.02
freq.    1153.15  E(vib)   ...       0.01
freq.    1234.88  E(vib)   ...       0.01
freq.    1290.67  E(vib)   ...       0.01
freq.    1392.78  E(vib)   ...       0.00
freq.    1460.77  E(vib)   ...       0.00
freq.    1529.85  E(vib)   ...       0.00
freq.    1556.15  E(vib)   ...       0.00
freq.    3200.73  E(vib)   ...       0.00
freq.    3206.20  E(vib)   ...       0.00
freq.    3247.45  E(vib)   ...       0.00
freq.    3271.03  E(vib)   ...       0.00

------------
INNER ENERGY
------------

The inner energy is: U= E(el) + E(ZPE) + E(vib) + E(rot) + E(trans)
    E(el)   - is the total energy from the electronic structure calculation
              = E(kin-el) + E(nuc-el) + E(el-el) + E(nuc-nuc)
    E(ZPE)  - the the zero temperature vibrational energy from the frequency calculation
    E(vib)  - the the finite temperature correction to E(ZPE) due to population
              of excited vibrational states
    E(rot)  - is the rotational thermal energy
    E(trans)- is the translational thermal energy

Summary of contributions to the inner energy U:
Electronic energy                ...   -209.10792758 Eh
Zero point energy                ...      0.07043725 Eh      44.20 kcal/mol
Thermal vibrational correction   ...      0.00083520 Eh       0.52 kcal/mol
Thermal rotational correction    ...      0.00141627 Eh       0.89 kcal/mol
Thermal translational correction ...      0.00141627 Eh       0.89 kcal/mol
-----------------------------------------------------------------------
Total thermal energy                   -209.03382259 Eh

Summary of corrections to the electronic energy:
(perhaps to be used in another calculation)
Total thermal correction                  0.00366774 Eh       2.30 kcal/mol
Non-thermal (ZPE) correction              0.07043725 Eh      44.20 kcal/mol
-----------------------------------------------------------------------
Total correction                          0.07410499 Eh      46.50 kcal/mol

--------
ENTHALPY
--------

The enthalpy is H = U + kB*T
                kB is Boltzmann's constant
Total free energy                 ...   -209.03382259 Eh
Thermal Enthalpy correction       ...      0.00094421 Eh       0.59 kcal/mol
-----------------------------------------------------------------------
Total Enthalpy                    ...   -209.03287838 Eh

Vibrational entropy computed according to the QRRHO of S. Grimme
Chem.Eur.J. 2012 18 9955

-------
ENTROPY
-------

The entropy contributions are T*S = T*(S(el)+S(vib)+S(rot)+S(trans)
     S(el)   - electronic entropy
     S(vib)  - vibrational entropy
     S(rot)  - rotational entropy
     S(trans)- translational entropy
The entropies will be listed as mutliplied by the temperature to get
units of energy

Electronic entropy                ...      0.00000000 Eh      0.00 kcal/mol
Vibrational entropy               ...      0.00105342 Eh      0.66 kcal/mol
Rotational entropy                ...      0.01042217 Eh      6.54 kcal/mol
Translational entropy             ...      0.01828454 Eh     11.47 kcal/mol
-----------------------------------------------------------------------
Final entropy term                ...      0.02976013 Eh     18.67 kcal/mol

CAUTION: The rotational entropy is not quite correctly treated here
         because it includes a symmetry number that is not yet correctly
         implemented in ORCA!
For a nonlinear molecule the correct rotational entropy is:
    S(rot) = R*(ln(qrot/sn)+1.5)
    R    = 8.31441 J/mol/K = 1.987191683e-3 kcal/mol/K
    qrot = 41644.7828881
    sn is the rotational symmetry number. We have assumed 3 here
       if it is different for your molecule then you should correct
       the printed rotational entropy by manually evaluating the equation
       as given above

For convenience we print out the resulting values for sn=1 - 12:
 sn= 1  qrot/sn=   41644.7829 T*S(rot)=     7.19 kcal/mol T*S(tot)=    19.33 kcal/mol
 sn= 2  qrot/sn=   20822.3914 T*S(rot)=     6.78 kcal/mol T*S(tot)=    18.91 kcal/mol
 sn= 3  qrot/sn=   13881.5943 T*S(rot)=     6.54 kcal/mol T*S(tot)=    18.67 kcal/mol
 sn= 4  qrot/sn=   10411.1957 T*S(rot)=     6.37 kcal/mol T*S(tot)=    18.50 kcal/mol
 sn= 5  qrot/sn=    8328.9566 T*S(rot)=     6.24 kcal/mol T*S(tot)=    18.37 kcal/mol
 sn= 6  qrot/sn=    6940.7971 T*S(rot)=     6.13 kcal/mol T*S(tot)=    18.26 kcal/mol
 sn= 7  qrot/sn=    5949.2547 T*S(rot)=     6.04 kcal/mol T*S(tot)=    18.17 kcal/mol
 sn= 8  qrot/sn=    5205.5979 T*S(rot)=     5.96 kcal/mol T*S(tot)=    18.09 kcal/mol
 sn= 9  qrot/sn=    4627.1981 T*S(rot)=     5.89 kcal/mol T*S(tot)=    18.02 kcal/mol
 sn=10  qrot/sn=    4164.4783 T*S(rot)=     5.83 kcal/mol T*S(tot)=    17.96 kcal/mol
 sn=11  qrot/sn=    3785.8894 T*S(rot)=     5.77 kcal/mol T*S(tot)=    17.90 kcal/mol
 sn=12  qrot/sn=    3470.3986 T*S(rot)=     5.72 kcal/mol T*S(tot)=    17.85 kcal/mol

-------------------
GIBBS FREE ENTHALPY
-------------------

The Gibbs free enthalpy is G = H - T*S

Total enthalpy                    ...   -209.03287838 Eh
Total entropy correction          ...     -0.02976013 Eh    -18.67 kcal/mol
-----------------------------------------------------------------------
Final Gibbs free enthalpy         ...   -209.06263851 Eh

For completeness - the Gibbs free enthalpy minus the electronic energy
G-E(el)                           ...      0.04528907 Eh     28.42 kcal/mol

                             ****ORCA TERMINATED NORMALLY****
TOTAL RUN TIME: 0 days 0 hours 5 minutes 43 seconds 322 msec
