                         Program Version 4.0.1.2 - RELEASE -
|  1> # pyrrole.xyz
|  2> ! PBEh3c Opt Freq
|  3>
|  4> * xyz 0 1
|  5> C         -1.17059        0.01120        0.00014
|  6> C         -0.37390        1.13442        0.00040
|  7> C          0.97221        0.69679        0.00017
|  8> C          0.95607       -0.68020       -0.00023
|  9> N         -0.35233       -1.08830       -0.00024
| 10> H         -2.24657       -0.09976        0.00020
| 11> H         -0.72409        2.15850        0.00072
| 12> H          1.85768        1.31915        0.00027
| 13> H          1.76108       -1.40268       -0.00050
| 14> H         -0.66520       -2.05064       -0.00049
| 15> *
| 16> %pal
| 17>  nprocs 4
| 18> end
| 19>
| 20>                          ****END OF INPUT****
 Total Charge           Charge          ....    0
 Multiplicity           Mult            ....    1
 Number of Electrons    NEL             ....   36
Dispersion correction           -0.004126723
FINAL SINGLE POINT ENERGY      -209.703484009775
Dispersion correction            ... done
Dispersion correction           -0.004127395
FINAL SINGLE POINT ENERGY      -209.703947844214
Dispersion correction            ... done
Dispersion correction           -0.004126519
FINAL SINGLE POINT ENERGY      -209.703964220474
Dispersion correction            ... done
Dispersion correction           -0.004126306
FINAL SINGLE POINT ENERGY      -209.703969409270
Dispersion correction            ... done
Dispersion correction           -0.004126326
FINAL SINGLE POINT ENERGY      -209.703970727649
Dispersion correction            ... done
                    ***********************HURRAY********************

CARTESIAN COORDINATES (ANGSTROEM)
---------------------------------
  C     -1.168043    0.008417    0.000141
  C     -0.377180    1.126730    0.000400
  C      0.970341    0.688618    0.000160
  C      0.952121   -0.680756   -0.000226
  N     -0.349506   -1.079198   -0.000239
  H     -2.240180   -0.093370    0.000197
  H     -0.725206    2.146546    0.000720
  H      1.851648    1.308599    0.000269
  H      1.759012   -1.393872   -0.000499
  H     -0.658645   -2.033234   -0.000482

 Multiplicity           Mult            ....    1
 Number of Electrons    NEL             ....   36
 Basis Dimension        Dim             ....   85

ORBITAL ENERGIES
----------------

  NO   OCC          E(Eh)            E(eV)
   0   2.0000     -14.680764      -399.4839
   1   2.0000     -10.456109      -284.5252
   2   2.0000     -10.456033      -284.5231
   3   2.0000     -10.418023      -283.4888
   4   2.0000     -10.417551      -283.4760
   5   2.0000      -1.082376       -29.4530
   6   2.0000      -0.859748       -23.3949
   7   2.0000      -0.804348       -21.8874
   8   2.0000      -0.659288       -17.9401
   9   2.0000      -0.633151       -17.2289
  10   2.0000      -0.610318       -16.6076
  11   2.0000      -0.485621       -13.2144
  12   2.0000      -0.478385       -13.0175
  13   2.0000      -0.466253       -12.6874
  14   2.0000      -0.440938       -11.9985
  15   2.0000      -0.425185       -11.5699
  16   2.0000      -0.283077        -7.7029
  17   2.0000      -0.248160        -6.7528
  18   0.0000       0.074642         2.0311
  19   0.0000       0.119934         3.2636
  20   0.0000       0.128383         3.4935
  21   0.0000       0.195442         5.3182
  22   0.0000       0.226030         6.1506

MULLIKEN ATOMIC CHARGES
-----------------------
   0 C :   -0.029994
   1 C :   -0.300734
   2 C :   -0.300743
   3 C :   -0.030458
   4 N :   -0.570561
   5 H :    0.227948
   6 H :    0.207942
   7 H :    0.208161
   8 H :    0.228459
   9 H :    0.359980
Sum of atomic charges:   -0.0000000

LOEWDIN ATOMIC CHARGES
----------------------
   0 C :   -0.126401
   1 C :   -0.202293
   2 C :   -0.202232
   3 C :   -0.126327
   4 N :   -0.129766
   5 H :    0.130780
   6 H :    0.133418
   7 H :    0.133357
   8 H :    0.130743
   9 H :    0.258722

  Mayer bond orders larger than 0.1
B(  0-C ,  1-C ) :   1.5431 B(  0-C ,  4-N ) :   1.1656 B(  0-C ,  5-H ) :   0.9151
B(  1-C ,  2-C ) :   1.3796 B(  1-C ,  6-H ) :   0.9285 B(  2-C ,  3-C ) :   1.5443
B(  2-C ,  7-H ) :   0.9283 B(  3-C ,  4-N ) :   1.1661 B(  3-C ,  8-H ) :   0.9148
B(  4-N ,  9-H ) :   0.8278

Dispersion correction           -0.004126343
FINAL SINGLE POINT ENERGY      -209.703970847732

DIPOLE MOMENT
-------------
                                X             Y             Z
Electronic contribution:     -0.25952      -0.79812      -0.00021
Nuclear contribution   :      0.01199       0.03451       0.00001
                        -----------------------------------------
Total Dipole Moment    :     -0.24753      -0.76361      -0.00020
                        -----------------------------------------
Magnitude (a.u.)       :      0.80273
Magnitude (Debye)      :      2.04037

Dispersion correction in the Hessian             ... done   (      2.4 sec)

VIBRATIONAL FREQUENCIES
-----------------------

   0:         0.00 cm**-1
   1:         0.00 cm**-1
   2:         0.00 cm**-1
   3:         0.00 cm**-1
   4:         0.00 cm**-1
   5:         0.00 cm**-1
   6:       528.66 cm**-1
   7:       649.40 cm**-1
   8:       663.36 cm**-1
   9:       733.37 cm**-1
  10:       763.48 cm**-1
  11:       880.77 cm**-1
  12:       900.69 cm**-1
  13:       925.08 cm**-1
  14:       927.37 cm**-1
  15:      1073.74 cm**-1
  16:      1108.47 cm**-1
  17:      1132.68 cm**-1
  18:      1203.57 cm**-1
  19:      1225.35 cm**-1
  20:      1356.78 cm**-1
  21:      1490.78 cm**-1
  22:      1535.84 cm**-1
  23:      1570.46 cm**-1
  24:      1645.83 cm**-1
  25:      3328.64 cm**-1
  26:      3338.35 cm**-1
  27:      3351.21 cm**-1
  28:      3357.59 cm**-1
  29:      3764.20 cm**-1

IR SPECTRUM
-----------

 Mode    freq (cm**-1)   T**2         TX         TY         TZ
-------------------------------------------------------------------
   6:       528.66   93.247904  ( -0.001395  -0.001001  -9.656495)
   7:       649.40    0.000106  ( -0.000828   0.001182   0.010207)
   8:       663.36    0.061118  (  0.001824   0.001229   0.247211)
   9:       733.37    0.212839  (  0.000353  -0.001327  -0.461343)
  10:       763.48  164.963085  (  0.000933   0.000689  12.843796)
  11:       880.77    1.195354  ( -0.002244  -0.001047  -1.093320)
  12:       900.69    1.400190  (  1.127816  -0.358079  -0.000308)
  13:       925.08    0.340760  ( -0.188497  -0.552475   0.000024)
  14:       927.37    0.001445  ( -0.000126   0.001979   0.037967)
  15:      1073.74   30.977670  (  1.723877   5.292062   0.001915)
  16:      1108.47   29.380239  (  5.154816  -1.675742  -0.001027)
  17:      1132.68    9.458441  ( -0.969234  -2.918737  -0.000948)
  18:      1203.57    4.278268  ( -1.973713   0.618646   0.000398)
  19:      1225.35    3.367143  ( -0.553783  -1.749419  -0.000443)
  20:      1356.78    2.369303  (  1.468165  -0.462379  -0.000246)
  21:      1490.78    4.209225  ( -0.629684  -1.952620  -0.000340)
  22:      1535.84    6.416683  ( -2.414802   0.765123   0.000456)
  23:      1570.46    7.875898  ( -0.860886  -2.671099  -0.000914)
  24:      1645.83    6.000076  (  2.328639  -0.759944  -0.000341)
  25:      3328.64    1.669645  ( -1.201786   0.474716   0.000211)
  26:      3338.35    1.951404  ( -0.537707  -1.289292  -0.000415)
  27:      3351.21    2.049498  ( -1.340220   0.503297   0.000300)
  28:      3357.59    0.092745  ( -0.206445  -0.223888  -0.000049)
  29:      3764.20   86.600332  (  2.879845   8.849114   0.002168)

--------------------------
THERMOCHEMISTRY AT 298.15K
--------------------------

Temperature         ... 298.15 K
Pressure            ... 1.00 atm
Total Mass          ... 67.09 AMU

Throughout the following assumptions are being made:
  (1) The electronic state is orbitally nondegenerate
  (2) There are no thermally accessible electronically excited states
  (3) Hindered rotations indicated by low frequency modes are not
      treated as such but are treated as vibrations and this may
      cause some error
  (4) All equations used are the standard statistical mechanics
      equations for an ideal gas
  (5) All vibrations are strictly harmonic

freq.     528.66  E(vib)   ...       0.13
freq.     649.40  E(vib)   ...       0.08
freq.     663.36  E(vib)   ...       0.08
freq.     733.37  E(vib)   ...       0.06
freq.     763.48  E(vib)   ...       0.06
freq.     880.77  E(vib)   ...       0.04
freq.     900.69  E(vib)   ...       0.03
freq.     925.08  E(vib)   ...       0.03
freq.     927.37  E(vib)   ...       0.03
freq.    1073.74  E(vib)   ...       0.02
freq.    1108.47  E(vib)   ...       0.02
freq.    1132.68  E(vib)   ...       0.01
freq.    1203.57  E(vib)   ...       0.01
freq.    1225.35  E(vib)   ...       0.01
freq.    1356.78  E(vib)   ...       0.01
freq.    1490.78  E(vib)   ...       0.00
freq.    1535.84  E(vib)   ...       0.00
freq.    1570.46  E(vib)   ...       0.00
freq.    1645.83  E(vib)   ...       0.00
freq.    3328.64  E(vib)   ...       0.00
freq.    3338.35  E(vib)   ...       0.00
freq.    3351.21  E(vib)   ...       0.00
freq.    3357.59  E(vib)   ...       0.00
freq.    3764.20  E(vib)   ...       0.00

------------
INNER ENERGY
------------

The inner energy is: U= E(el) + E(ZPE) + E(vib) + E(rot) + E(trans)
    E(el)   - is the total energy from the electronic structure calculation
              = E(kin-el) + E(nuc-el) + E(el-el) + E(nuc-nuc)
    E(ZPE)  - the the zero temperature vibrational energy from the frequency calculation
    E(vib)  - the the finite temperature correction to E(ZPE) due to population
              of excited vibrational states
    E(rot)  - is the rotational thermal energy
    E(trans)- is the translational thermal energy

Summary of contributions to the inner energy U:
Electronic energy                ...   -209.70397085 Eh
Zero point energy                ...      0.08533031 Eh      53.55 kcal/mol
Thermal vibrational correction   ...      0.00099599 Eh       0.62 kcal/mol
Thermal rotational correction    ...      0.00141627 Eh       0.89 kcal/mol
Thermal translational correction ...      0.00141627 Eh       0.89 kcal/mol
-----------------------------------------------------------------------
Total thermal energy                   -209.61481201 Eh

Summary of corrections to the electronic energy:
(perhaps to be used in another calculation)
Total thermal correction                  0.00382853 Eh       2.40 kcal/mol
Non-thermal (ZPE) correction              0.08533031 Eh      53.55 kcal/mol
-----------------------------------------------------------------------
Total correction                          0.08915884 Eh      55.95 kcal/mol

--------
ENTHALPY
--------

The enthalpy is H = U + kB*T
                kB is Boltzmann's constant
Total free energy                 ...   -209.61481201 Eh
Thermal Enthalpy correction       ...      0.00094421 Eh       0.59 kcal/mol
-----------------------------------------------------------------------
Total Enthalpy                    ...   -209.61386780 Eh

Vibrational entropy computed according to the QRRHO of S. Grimme
Chem.Eur.J. 2012 18 9955

-------
ENTROPY
-------

The entropy contributions are T*S = T*(S(el)+S(vib)+S(rot)+S(trans)
     S(el)   - electronic entropy
     S(vib)  - vibrational entropy
     S(rot)  - rotational entropy
     S(trans)- translational entropy
The entropies will be listed as mutliplied by the temperature to get
units of energy

Electronic entropy                ...      0.00000000 Eh      0.00 kcal/mol
Vibrational entropy               ...      0.00127716 Eh      0.80 kcal/mol
Rotational entropy                ...      0.01047422 Eh      6.57 kcal/mol
Translational entropy             ...      0.01830598 Eh     11.49 kcal/mol
-----------------------------------------------------------------------
Final entropy term                ...      0.03005736 Eh     18.86 kcal/mol

CAUTION: The rotational entropy is not quite correctly treated here
         because it includes a symmetry number that is not yet correctly
         implemented in ORCA!
For a nonlinear molecule the correct rotational entropy is:
    S(rot) = R*(ln(qrot/sn)+1.5)
    R    = 8.31441 J/mol/K = 1.987191683e-3 kcal/mol/K
    qrot = 44005.1596775
    sn is the rotational symmetry number. We have assumed 3 here
       if it is different for your molecule then you should correct
       the printed rotational entropy by manually evaluating the equation
       as given above

For convenience we print out the resulting values for sn=1 - 12:
 sn= 1  qrot/sn=   44005.1597 T*S(rot)=     7.22 kcal/mol T*S(tot)=    19.51 kcal/mol
 sn= 2  qrot/sn=   22002.5798 T*S(rot)=     6.81 kcal/mol T*S(tot)=    19.10 kcal/mol
 sn= 3  qrot/sn=   14668.3866 T*S(rot)=     6.57 kcal/mol T*S(tot)=    18.86 kcal/mol
 sn= 4  qrot/sn=   11001.2899 T*S(rot)=     6.40 kcal/mol T*S(tot)=    18.69 kcal/mol
 sn= 5  qrot/sn=    8801.0319 T*S(rot)=     6.27 kcal/mol T*S(tot)=    18.56 kcal/mol
 sn= 6  qrot/sn=    7334.1933 T*S(rot)=     6.16 kcal/mol T*S(tot)=    18.45 kcal/mol
 sn= 7  qrot/sn=    6286.4514 T*S(rot)=     6.07 kcal/mol T*S(tot)=    18.36 kcal/mol
 sn= 8  qrot/sn=    5500.6450 T*S(rot)=     5.99 kcal/mol T*S(tot)=    18.28 kcal/mol
 sn= 9  qrot/sn=    4889.4622 T*S(rot)=     5.92 kcal/mol T*S(tot)=    18.21 kcal/mol
 sn=10  qrot/sn=    4400.5160 T*S(rot)=     5.86 kcal/mol T*S(tot)=    18.15 kcal/mol
 sn=11  qrot/sn=    4000.4691 T*S(rot)=     5.80 kcal/mol T*S(tot)=    18.09 kcal/mol
 sn=12  qrot/sn=    3667.0966 T*S(rot)=     5.75 kcal/mol T*S(tot)=    18.04 kcal/mol

-------------------
GIBBS FREE ENTHALPY
-------------------

The Gibbs free enthalpy is G = H - T*S

Total enthalpy                    ...   -209.61386780 Eh
Total entropy correction          ...     -0.03005736 Eh    -18.86 kcal/mol
-----------------------------------------------------------------------
Final Gibbs free enthalpy         ...   -209.64392516 Eh

For completeness - the Gibbs free enthalpy minus the electronic energy
G-E(el)                           ...      0.06004569 Eh     37.68 kcal/mol

                             ****ORCA TERMINATED NORMALLY****
TOTAL RUN TIME: 0 days 0 hours 2 minutes 21 seconds 263 msec
