                         Program Version 4.0.1.2 - RELEASE -
|  1> # pyrrolate.xyz
|  2> ! PBEh3c Opt NumFreq CPCM
|  3> %cpcm
|  4>  smd true
|  5>  solvent "WATER"
|  6> end
|  7>
|  8> * xyz -1 1
|  9> C       -1.114681038      0.000000000      0.362861461
| 10> C       -0.708476572      0.000000000     -0.945114313
| 11> C        0.708476572      0.000000000     -0.945114313
| 12> C        1.114681038      0.000000000      0.362861461
| 13> N        0.000000000      0.000000000      1.144164961
| 14> H       -2.102667851      0.000000000      0.791353672
| 15> H       -1.354836716      0.000000000     -1.807280826
| 16> H        1.354836716      0.000000000     -1.807280826
| 17> H        2.102667851      0.000000000      0.791353672
| 18> *
| 19> %pal
| 20>  nprocs 4
| 21> end
| 22>
| 23>                          ****END OF INPUT****
 Total Charge           Charge          ....   -1
 Multiplicity           Mult            ....    1
 Number of Electrons    NEL             ....   36
Dispersion correction           -0.003697882
FINAL SINGLE POINT ENERGY      -209.206198810067
Dispersion correction            ... done
Dispersion correction           -0.003669915
FINAL SINGLE POINT ENERGY      -209.212406662481
Dispersion correction            ... done
Dispersion correction           -0.003663433
FINAL SINGLE POINT ENERGY      -209.212659856552
Dispersion correction            ... done
FINAL SINGLE POINT ENERGY      -209.212719802673
Dispersion correction            ... done
Dispersion correction           -0.003661966
FINAL SINGLE POINT ENERGY      -209.212736041432
Dispersion correction            ... done
Dispersion correction           -0.003662146
FINAL SINGLE POINT ENERGY      -209.212738549573
Dispersion correction            ... done
                    ***********************HURRAY********************

CARTESIAN COORDINATES (ANGSTROEM)
---------------------------------
  C     -1.073195    0.000000    0.379757
  C     -0.706026   -0.000000   -0.964400
  C      0.706150    0.000000   -0.964219
  C      1.073070   -0.000000    0.379684
  N      0.000027    0.000000    1.201537
  H     -2.081252    0.000000    0.780486
  H     -1.364988   -0.000000   -1.822699
  H      1.365021    0.000000   -1.822677
  H      2.081193   -0.000000    0.780335

 Multiplicity           Mult            ....    1
 Number of Electrons    NEL             ....   36
 Basis Dimension        Dim             ....   83

ORBITAL ENERGIES
----------------

  NO   OCC          E(Eh)            E(eV)
   0   2.0000     -14.568048      -396.4167
   1   2.0000     -10.404684      -283.1259
   2   2.0000     -10.404628      -283.1243
   3   2.0000     -10.387329      -282.6536
   4   2.0000     -10.386843      -282.6404
   5   2.0000      -0.995769       -27.0962
   6   2.0000      -0.791248       -21.5310
   7   2.0000      -0.744481       -20.2584
   8   2.0000      -0.582266       -15.8443
   9   2.0000      -0.568763       -15.4768
  10   2.0000      -0.531656       -14.4671
  11   2.0000      -0.412293       -11.2191
  12   2.0000      -0.407362       -11.0849
  13   2.0000      -0.396549       -10.7906
  14   2.0000      -0.391031       -10.6405
  15   2.0000      -0.280921        -7.6442
  16   2.0000      -0.235416        -6.4060
  17   2.0000      -0.210508        -5.7282
  18   0.0000       0.133326         3.6280
  19   0.0000       0.134789         3.6678
  20   0.0000       0.210770         5.7353
  21   0.0000       0.249269         6.7829
  22   0.0000       0.252926         6.8825

MULLIKEN ATOMIC CHARGES
-----------------------
   0 C :   -0.226901
   1 C :   -0.414501
   2 C :   -0.416357
   3 C :   -0.226483
   4 N :   -0.480824
   5 H :    0.183379
   6 H :    0.199034
   7 H :    0.199160
   8 H :    0.183493
Sum of atomic charges:   -1.0000000

LOEWDIN ATOMIC CHARGES
----------------------
   0 C :   -0.240664
   1 C :   -0.317265
   2 C :   -0.317925
   3 C :   -0.240706
   4 N :   -0.321444
   5 H :    0.101522
   6 H :    0.117517
   7 H :    0.117464
   8 H :    0.101501

  Mayer bond orders larger than 0.1
B(  0-C ,  1-C ) :   1.4456 B(  0-C ,  4-N ) :   1.4689 B(  0-C ,  5-H ) :   0.9301
B(  1-C ,  2-C ) :   1.4008 B(  1-C ,  6-H ) :   0.9200 B(  2-C ,  3-C ) :   1.4455
B(  2-C ,  7-H ) :   0.9199 B(  3-C ,  4-N ) :   1.4689 B(  3-C ,  8-H ) :   0.9301

Dispersion correction           -0.003662205
FINAL SINGLE POINT ENERGY      -209.212738575337

DIPOLE MOMENT
-------------
                                X             Y             Z
Electronic contribution:     -0.00163       0.00000       1.11396
Nuclear contribution   :     -0.00004      -0.00000      -1.98806
                        -----------------------------------------
Total Dipole Moment    :     -0.00168      -0.00000      -0.87410
                        -----------------------------------------
Magnitude (a.u.)       :      0.87410
Magnitude (Debye)      :      2.22178

VIBRATIONAL FREQUENCIES
-----------------------

   0:         0.00 cm**-1
   1:         0.00 cm**-1
   2:         0.00 cm**-1
   3:         0.00 cm**-1
   4:         0.00 cm**-1
   5:         0.00 cm**-1
   6:       660.59 cm**-1
   7:       707.00 cm**-1
   8:       736.87 cm**-1
   9:       764.68 cm**-1
  10:       830.82 cm**-1
  11:       865.84 cm**-1
  12:       913.28 cm**-1
  13:       914.87 cm**-1
  14:      1062.62 cm**-1
  15:      1077.87 cm**-1
  16:      1149.94 cm**-1
  17:      1225.95 cm**-1
  18:      1291.40 cm**-1
  19:      1389.16 cm**-1
  20:      1461.10 cm**-1
  21:      1538.25 cm**-1
  22:      1554.93 cm**-1
  23:      3243.16 cm**-1
  24:      3248.26 cm**-1
  25:      3274.99 cm**-1
  26:      3293.01 cm**-1

IR SPECTRUM
-----------

 Mode    freq (cm**-1)   T**2         TX         TY         TZ
-------------------------------------------------------------------
   6:       660.59    0.008080  (  0.000351  -0.089885  -0.000468)
   7:       707.00   57.915912  ( -0.000894  -7.610250   0.001209)
   8:       736.87  129.313506  (  0.002955  11.371609  -0.004010)
   9:       764.68    1.048646  ( -0.002675  -1.024024   0.003643)
  10:       830.82   25.019405  ( -0.001017   5.001940   0.001413)
  11:       865.84    0.062530  (  0.002367   0.250027  -0.003363)
  12:       913.28    4.576995  (  0.855652   0.000513  -1.960830)
  13:       914.87   12.719367  ( -0.535111  -0.000251  -3.526049)
  14:      1062.62   76.726957  (  0.165391  -0.000117  -8.757831)
  15:      1077.87   29.147823  (  5.392182   0.000141   0.268697)
  16:      1149.94   27.135376  (  0.024901  -0.000129   5.209103)
  17:      1225.95    5.337865  (  0.001198  -0.000040  -2.310382)
  18:      1291.40    2.198049  ( -1.481460   0.000081   0.057679)
  19:      1389.16    3.554307  (  1.885167  -0.000004   0.021240)
  20:      1461.10    3.471952  (  0.046840   0.000059   1.862729)
  21:      1538.25    1.234071  (  1.109342  -0.000028   0.058589)
  22:      1554.93   26.494373  ( -0.043169   0.000049  -5.147088)
  23:      3243.16   60.127789  ( -7.753129  -0.000010  -0.129508)
  24:      3248.26   29.009441  ( -0.274334   0.000005   5.379050)
  25:      3274.99   56.429146  (  7.511702   0.000000  -0.059044)
  26:      3293.01   13.120428  ( -0.092216  -0.000012  -3.621039)

--------------------------
THERMOCHEMISTRY AT 298.15K
--------------------------

Temperature         ... 298.15 K
Pressure            ... 1.00 atm
Total Mass          ... 66.08 AMU

Throughout the following assumptions are being made:
  (1) The electronic state is orbitally nondegenerate
  (2) There are no thermally accessible electronically excited states
  (3) Hindered rotations indicated by low frequency modes are not
      treated as such but are treated as vibrations and this may
      cause some error
  (4) All equations used are the standard statistical mechanics
      equations for an ideal gas
  (5) All vibrations are strictly harmonic

freq.     660.59  E(vib)   ...       0.08
freq.     707.00  E(vib)   ...       0.07
freq.     736.87  E(vib)   ...       0.06
freq.     764.68  E(vib)   ...       0.06
freq.     830.82  E(vib)   ...       0.04
freq.     865.84  E(vib)   ...       0.04
freq.     913.28  E(vib)   ...       0.03
freq.     914.87  E(vib)   ...       0.03
freq.    1062.62  E(vib)   ...       0.02
freq.    1077.87  E(vib)   ...       0.02
freq.    1149.94  E(vib)   ...       0.01
freq.    1225.95  E(vib)   ...       0.01
freq.    1291.40  E(vib)   ...       0.01
freq.    1389.16  E(vib)   ...       0.00
freq.    1461.10  E(vib)   ...       0.00
freq.    1538.25  E(vib)   ...       0.00
freq.    1554.93  E(vib)   ...       0.00
freq.    3243.16  E(vib)   ...       0.00
freq.    3248.26  E(vib)   ...       0.00
freq.    3274.99  E(vib)   ...       0.00
freq.    3293.01  E(vib)   ...       0.00

------------
INNER ENERGY
------------

The inner energy is: U= E(el) + E(ZPE) + E(vib) + E(rot) + E(trans)
    E(el)   - is the total energy from the electronic structure calculation
              = E(kin-el) + E(nuc-el) + E(el-el) + E(nuc-nuc)
    E(ZPE)  - the the zero temperature vibrational energy from the frequency calculation
    E(vib)  - the the finite temperature correction to E(ZPE) due to population
              of excited vibrational states
    E(rot)  - is the rotational thermal energy
    E(trans)- is the translational thermal energy

Summary of contributions to the inner energy U:
Electronic energy                ...   -209.21273858 Eh
Zero point energy                ...      0.07108931 Eh      44.61 kcal/mol
Thermal vibrational correction   ...      0.00078605 Eh       0.49 kcal/mol
Thermal rotational correction    ...      0.00141627 Eh       0.89 kcal/mol
Thermal translational correction ...      0.00141627 Eh       0.89 kcal/mol
-----------------------------------------------------------------------
Total thermal energy                   -209.13803068 Eh

Summary of corrections to the electronic energy:
(perhaps to be used in another calculation)
Total thermal correction                  0.00361859 Eh       2.27 kcal/mol
Non-thermal (ZPE) correction              0.07108931 Eh      44.61 kcal/mol
-----------------------------------------------------------------------
Total correction                          0.07470789 Eh      46.88 kcal/mol

--------
ENTHALPY
--------

The enthalpy is H = U + kB*T
                kB is Boltzmann's constant
Total free energy                 ...   -209.13803068 Eh
Thermal Enthalpy correction       ...      0.00094421 Eh       0.59 kcal/mol
-----------------------------------------------------------------------
Total Enthalpy                    ...   -209.13708647 Eh

Vibrational entropy computed according to the QRRHO of S. Grimme
Chem.Eur.J. 2012 18 9955

-------
ENTROPY
-------

The entropy contributions are T*S = T*(S(el)+S(vib)+S(rot)+S(trans)
     S(el)   - electronic entropy
     S(vib)  - vibrational entropy
     S(rot)  - rotational entropy
     S(trans)- translational entropy
The entropies will be listed as mutliplied by the temperature to get
units of energy

Electronic entropy                ...      0.00000000 Eh      0.00 kcal/mol
Vibrational entropy               ...      0.00098633 Eh      0.62 kcal/mol
Rotational entropy                ...      0.01042388 Eh      6.54 kcal/mol
Translational entropy             ...      0.01828454 Eh     11.47 kcal/mol
-----------------------------------------------------------------------
Final entropy term                ...      0.02969475 Eh     18.63 kcal/mol

CAUTION: The rotational entropy is not quite correctly treated here
         because it includes a symmetry number that is not yet correctly
         implemented in ORCA!
For a nonlinear molecule the correct rotational entropy is:
    S(rot) = R*(ln(qrot/sn)+1.5)
    R    = 8.31441 J/mol/K = 1.987191683e-3 kcal/mol/K
    qrot = 41720.0890237
    sn is the rotational symmetry number. We have assumed 3 here
       if it is different for your molecule then you should correct
       the printed rotational entropy by manually evaluating the equation
       as given above

For convenience we print out the resulting values for sn=1 - 12:
 sn= 1  qrot/sn=   41720.0890 T*S(rot)=     7.19 kcal/mol T*S(tot)=    19.28 kcal/mol
 sn= 2  qrot/sn=   20860.0445 T*S(rot)=     6.78 kcal/mol T*S(tot)=    18.87 kcal/mol
 sn= 3  qrot/sn=   13906.6963 T*S(rot)=     6.54 kcal/mol T*S(tot)=    18.63 kcal/mol
 sn= 4  qrot/sn=   10430.0223 T*S(rot)=     6.37 kcal/mol T*S(tot)=    18.46 kcal/mol
 sn= 5  qrot/sn=    8344.0178 T*S(rot)=     6.24 kcal/mol T*S(tot)=    18.33 kcal/mol
 sn= 6  qrot/sn=    6953.3482 T*S(rot)=     6.13 kcal/mol T*S(tot)=    18.22 kcal/mol
 sn= 7  qrot/sn=    5960.0127 T*S(rot)=     6.04 kcal/mol T*S(tot)=    18.13 kcal/mol
 sn= 8  qrot/sn=    5215.0111 T*S(rot)=     5.96 kcal/mol T*S(tot)=    18.05 kcal/mol
 sn= 9  qrot/sn=    4635.5654 T*S(rot)=     5.89 kcal/mol T*S(tot)=    17.98 kcal/mol
 sn=10  qrot/sn=    4172.0089 T*S(rot)=     5.83 kcal/mol T*S(tot)=    17.92 kcal/mol
 sn=11  qrot/sn=    3792.7354 T*S(rot)=     5.77 kcal/mol T*S(tot)=    17.86 kcal/mol
 sn=12  qrot/sn=    3476.6741 T*S(rot)=     5.72 kcal/mol T*S(tot)=    17.81 kcal/mol

-------------------
GIBBS FREE ENTHALPY
-------------------

The Gibbs free enthalpy is G = H - T*S

Total enthalpy                    ...   -209.13708647 Eh
Total entropy correction          ...     -0.02969475 Eh    -18.63 kcal/mol
-----------------------------------------------------------------------
Final Gibbs free enthalpy         ...   -209.16678122 Eh

For completeness - the Gibbs free enthalpy minus the electronic energy
G-E(el)                           ...      0.04595735 Eh     28.84 kcal/mol

                             ****ORCA TERMINATED NORMALLY****
TOTAL RUN TIME: 0 days 0 hours 4 minutes 54 seconds 201 msec
