                         Program Version 4.0.1.2 - RELEASE -
|  1> # pyrrole.xyz
|  2> ! PBEh3c Opt NumFreq CPCM
|  3> %cpcm
|  4>  smd true
|  5>  solvent "WATER"
|  6> end
|  7>
|  8> * xyz 0 1
|  9> C         -1.17059        0.01120        0.00014
| 10> C         -0.37390        1.13442        0.00040
| 11> C          0.97221        0.69679        0.00017
| 12> C          0.95607       -0.68020       -0.00023
| 13> N         -0.35233       -1.08830       -0.00024
| 14> H         -2.24657       -0.09976        0.00020
| 15> H         -0.72409        2.15850        0.00072
| 16> H          1.85768        1.31915        0.00027
| 17> H          1.76108       -1.40268       -0.00050
| 18> H         -0.66520       -2.05064       -0.00049
| 19> *
| 20> %pal
| 21>  nprocs 4
| 22> end
| 23>
| 24>                          ****END OF INPUT****
 Total Charge           Charge          ....    0
 Multiplicity           Mult            ....    1
 Number of Electrons    NEL             ....   36
Dispersion correction           -0.004126723
FINAL SINGLE POINT ENERGY      -209.712341691464
Dispersion correction            ... done
Dispersion correction           -0.004126822
FINAL SINGLE POINT ENERGY      -209.712681989014
Dispersion correction            ... done
Dispersion correction           -0.004126145
FINAL SINGLE POINT ENERGY      -209.712702701165
Dispersion correction            ... done
Dispersion correction           -0.004126134
FINAL SINGLE POINT ENERGY      -209.712705870338
Dispersion correction            ... done
                    ***********************HURRAY********************

CARTESIAN COORDINATES (ANGSTROEM)
---------------------------------
  C     -1.167311    0.007617   -0.000482
  C     -0.377430    1.130767   -0.000127
  C      0.972901    0.691725   -0.000346
  C      0.951046   -0.680982   -0.000881
  N     -0.349118   -1.078025   -0.001429
  H     -2.239330   -0.100235    0.000812
  H     -0.727679    2.151127    0.001328
  H      1.856350    1.310787    0.000943
  H      1.754339   -1.398842    0.000084
  H     -0.659410   -2.035460    0.000539

 Multiplicity           Mult            ....    1
 Number of Electrons    NEL             ....   36
 Basis Dimension        Dim             ....   85

ORBITAL ENERGIES
----------------

  NO   OCC          E(Eh)            E(eV)
   0   2.0000     -14.678327      -399.4176
   1   2.0000     -10.457814      -284.5716
   2   2.0000     -10.457729      -284.5693
   3   2.0000     -10.423819      -283.6465
   4   2.0000     -10.423358      -283.6340
   5   2.0000      -1.083077       -29.4720
   6   2.0000      -0.861215       -23.4348
   7   2.0000      -0.806009       -21.9326
   8   2.0000      -0.655479       -17.8365
   9   2.0000      -0.635288       -17.2871
  10   2.0000      -0.608058       -16.5461
  11   2.0000      -0.484944       -13.1960
  12   2.0000      -0.474898       -12.9226
  13   2.0000      -0.471157       -12.8208
  14   2.0000      -0.443440       -12.0666
  15   2.0000      -0.427153       -11.6234
  16   2.0000      -0.291087        -7.9209
  17   2.0000      -0.255571        -6.9544
  18   0.0000       0.070082         1.9070
  19   0.0000       0.109112         2.9691
  20   0.0000       0.154123         4.1939
  21   0.0000       0.210729         5.7342
  22   0.0000       0.233655         6.3581

MULLIKEN ATOMIC CHARGES
-----------------------
   0 C :   -0.076251
   1 C :   -0.372891
   2 C :   -0.372874
   3 C :   -0.076577
   4 N :   -0.563219
   5 H :    0.274936
   6 H :    0.248007
   7 H :    0.248206
   8 H :    0.275442
   9 H :    0.415221
Sum of atomic charges:   -0.0000000

LOEWDIN ATOMIC CHARGES
----------------------
   0 C :   -0.138175
   1 C :   -0.239911
   2 C :   -0.239820
   3 C :   -0.138027
   4 N :   -0.122819
   5 H :    0.149947
   6 H :    0.144522
   7 H :    0.144456
   8 H :    0.149913
   9 H :    0.289915

  Mayer bond orders larger than 0.1
B(  0-C ,  1-C ) :   1.5283 B(  0-C ,  4-N ) :   1.1928 B(  0-C ,  5-H ) :   0.8978
B(  1-C ,  2-C ) :   1.3686 B(  1-C ,  6-H ) :   0.9129 B(  2-C ,  3-C ) :   1.5294
B(  2-C ,  7-H ) :   0.9127 B(  3-C ,  4-N ) :   1.1933 B(  3-C ,  8-H ) :   0.8974
B(  4-N ,  9-H ) :   0.7898

Dispersion correction           -0.004126142
FINAL SINGLE POINT ENERGY      -209.712707303263

DIPOLE MOMENT
-------------
                                X             Y             Z
Electronic contribution:     -0.35424      -1.09059      -0.00270
Nuclear contribution   :      0.00791       0.02190       0.00615
                        -----------------------------------------
Total Dipole Moment    :     -0.34633      -1.06869       0.00345
                        -----------------------------------------
Magnitude (a.u.)       :      1.12341
Magnitude (Debye)      :      2.85549

VIBRATIONAL FREQUENCIES
-----------------------

   0:         0.00 cm**-1
   1:         0.00 cm**-1
   2:         0.00 cm**-1
   3:         0.00 cm**-1
   4:         0.00 cm**-1
   5:         0.00 cm**-1
   6:       553.62 cm**-1
   7:       650.46 cm**-1
   8:       669.99 cm**-1
   9:       753.76 cm**-1
  10:       762.10 cm**-1
  11:       893.00 cm**-1
  12:       898.99 cm**-1
  13:       920.90 cm**-1
  14:       922.97 cm**-1
  15:      1060.87 cm**-1
  16:      1097.23 cm**-1
  17:      1122.24 cm**-1
  18:      1170.75 cm**-1
  19:      1220.49 cm**-1
  20:      1348.02 cm**-1
  21:      1482.79 cm**-1
  22:      1513.19 cm**-1
  23:      1565.53 cm**-1
  24:      1626.01 cm**-1
  25:      3320.79 cm**-1
  26:      3332.27 cm**-1
  27:      3352.70 cm**-1
  28:      3355.99 cm**-1
  29:      3724.62 cm**-1

IR SPECTRUM
-----------

 Mode    freq (cm**-1)   T**2         TX         TY         TZ
-------------------------------------------------------------------
   6:       553.62  161.221788  ( -0.011648   0.145489  12.696475)
   7:       650.46    0.051602  ( -0.071107   0.031105   0.213492)
   8:       669.99    1.281932  (  0.014097  -0.062159  -1.130429)
   9:       753.76   68.073035  (  0.136877  -0.071174  -8.249196)
  10:       762.10  162.905285  (  0.130870   0.109301  12.762296)
  11:       893.00    0.006259  (  0.051377  -0.007153   0.059733)
  12:       898.99    2.719589  (  1.562945  -0.524843   0.036493)
  13:       920.90    1.067857  ( -0.328455  -0.978911   0.041332)
  14:       922.97    0.033013  (  0.167839   0.009412  -0.068949)
  15:      1060.87   68.269884  (  2.418319   7.900718  -0.016554)
  16:      1097.23   64.989371  ( -7.698272   2.392863  -0.013684)
  17:      1122.24   22.624407  ( -1.657590  -4.458340  -0.002946)
  18:      1170.75   12.934844  ( -3.402178   1.165646  -0.036052)
  19:      1220.49    4.008396  ( -0.606409  -1.908052   0.001475)
  20:      1348.02    4.697042  (  2.069151  -0.644621   0.010877)
  21:      1482.79    6.659149  (  0.758456   2.466373  -0.029936)
  22:      1513.19   11.845699  ( -3.289625   1.011778  -0.019219)
  23:      1565.53   15.724948  (  1.135640   3.799304  -0.023595)
  24:      1626.01    8.238448  (  2.740673  -0.852690   0.008814)
  25:      3320.79    4.065672  ( -1.902901   0.666809   0.001912)
  26:      3332.27    0.641186  ( -0.046037  -0.799186   0.019174)
  27:      3352.70    0.219891  (  0.433013  -0.179966   0.001726)
  28:      3355.99    0.123232  (  0.054644   0.346758   0.002298)
  29:      3724.62  257.920897  (  4.974560  15.270057  -0.001413)

--------------------------
THERMOCHEMISTRY AT 298.15K
--------------------------

Temperature         ... 298.15 K
Pressure            ... 1.00 atm
Total Mass          ... 67.09 AMU

Throughout the following assumptions are being made:
  (1) The electronic state is orbitally nondegenerate
  (2) There are no thermally accessible electronically excited states
  (3) Hindered rotations indicated by low frequency modes are not
      treated as such but are treated as vibrations and this may
      cause some error
  (4) All equations used are the standard statistical mechanics
      equations for an ideal gas
  (5) All vibrations are strictly harmonic

freq.     553.62  E(vib)   ...       0.12
freq.     650.46  E(vib)   ...       0.08
freq.     669.99  E(vib)   ...       0.08
freq.     753.76  E(vib)   ...       0.06
freq.     762.10  E(vib)   ...       0.06
freq.     893.00  E(vib)   ...       0.03
freq.     898.99  E(vib)   ...       0.03
freq.     920.90  E(vib)   ...       0.03
freq.     922.97  E(vib)   ...       0.03
freq.    1060.87  E(vib)   ...       0.02
freq.    1097.23  E(vib)   ...       0.02
freq.    1122.24  E(vib)   ...       0.01
freq.    1170.75  E(vib)   ...       0.01
freq.    1220.49  E(vib)   ...       0.01
freq.    1348.02  E(vib)   ...       0.01
freq.    1482.79  E(vib)   ...       0.00
freq.    1513.19  E(vib)   ...       0.00
freq.    1565.53  E(vib)   ...       0.00
freq.    1626.01  E(vib)   ...       0.00
freq.    3320.79  E(vib)   ...       0.00
freq.    3332.27  E(vib)   ...       0.00
freq.    3352.70  E(vib)   ...       0.00
freq.    3355.99  E(vib)   ...       0.00
freq.    3724.62  E(vib)   ...       0.00

------------
INNER ENERGY
------------

The inner energy is: U= E(el) + E(ZPE) + E(vib) + E(rot) + E(trans)
    E(el)   - is the total energy from the electronic structure calculation
              = E(kin-el) + E(nuc-el) + E(el-el) + E(nuc-nuc)
    E(ZPE)  - the the zero temperature vibrational energy from the frequency calculation
    E(vib)  - the the finite temperature correction to E(ZPE) due to population
              of excited vibrational states
    E(rot)  - is the rotational thermal energy
    E(trans)- is the translational thermal energy

Summary of contributions to the inner energy U:
Electronic energy                ...   -209.71270730 Eh
Zero point energy                ...      0.08501959 Eh      53.35 kcal/mol
Thermal vibrational correction   ...      0.00097610 Eh       0.61 kcal/mol
Thermal rotational correction    ...      0.00141627 Eh       0.89 kcal/mol
Thermal translational correction ...      0.00141627 Eh       0.89 kcal/mol
-----------------------------------------------------------------------
Total thermal energy                   -209.62387907 Eh

Summary of corrections to the electronic energy:
(perhaps to be used in another calculation)
Total thermal correction                  0.00380865 Eh       2.39 kcal/mol
Non-thermal (ZPE) correction              0.08501959 Eh      53.35 kcal/mol
-----------------------------------------------------------------------
Total correction                          0.08882824 Eh      55.74 kcal/mol

--------
ENTHALPY
--------

The enthalpy is H = U + kB*T
                kB is Boltzmann's constant
Total free energy                 ...   -209.62387907 Eh
Thermal Enthalpy correction       ...      0.00094421 Eh       0.59 kcal/mol
-----------------------------------------------------------------------
Total Enthalpy                    ...   -209.62293486 Eh

Vibrational entropy computed according to the QRRHO of S. Grimme
Chem.Eur.J. 2012 18 9955

-------
ENTROPY
-------

The entropy contributions are T*S = T*(S(el)+S(vib)+S(rot)+S(trans)
     S(el)   - electronic entropy
     S(vib)  - vibrational entropy
     S(rot)  - rotational entropy
     S(trans)- translational entropy
The entropies will be listed as mutliplied by the temperature to get
units of energy

Electronic entropy                ...      0.00000000 Eh      0.00 kcal/mol
Vibrational entropy               ...      0.00124554 Eh      0.78 kcal/mol
Rotational entropy                ...      0.01047676 Eh      6.57 kcal/mol
Translational entropy             ...      0.01830598 Eh     11.49 kcal/mol
-----------------------------------------------------------------------
Final entropy term                ...      0.03002828 Eh     18.84 kcal/mol

CAUTION: The rotational entropy is not quite correctly treated here
         because it includes a symmetry number that is not yet correctly
         implemented in ORCA!
For a nonlinear molecule the correct rotational entropy is:
    S(rot) = R*(ln(qrot/sn)+1.5)
    R    = 8.31441 J/mol/K = 1.987191683e-3 kcal/mol/K
    qrot = 44123.3279862
    sn is the rotational symmetry number. We have assumed 3 here
       if it is different for your molecule then you should correct
       the printed rotational entropy by manually evaluating the equation
       as given above

For convenience we print out the resulting values for sn=1 - 12:
 sn= 1  qrot/sn=   44123.3280 T*S(rot)=     7.23 kcal/mol T*S(tot)=    19.49 kcal/mol
 sn= 2  qrot/sn=   22061.6640 T*S(rot)=     6.81 kcal/mol T*S(tot)=    19.08 kcal/mol
 sn= 3  qrot/sn=   14707.7760 T*S(rot)=     6.57 kcal/mol T*S(tot)=    18.84 kcal/mol
 sn= 4  qrot/sn=   11030.8320 T*S(rot)=     6.40 kcal/mol T*S(tot)=    18.67 kcal/mol
 sn= 5  qrot/sn=    8824.6656 T*S(rot)=     6.27 kcal/mol T*S(tot)=    18.54 kcal/mol
 sn= 6  qrot/sn=    7353.8880 T*S(rot)=     6.16 kcal/mol T*S(tot)=    18.43 kcal/mol
 sn= 7  qrot/sn=    6303.3326 T*S(rot)=     6.07 kcal/mol T*S(tot)=    18.34 kcal/mol
 sn= 8  qrot/sn=    5515.4160 T*S(rot)=     5.99 kcal/mol T*S(tot)=    18.26 kcal/mol
 sn= 9  qrot/sn=    4902.5920 T*S(rot)=     5.92 kcal/mol T*S(tot)=    18.19 kcal/mol
 sn=10  qrot/sn=    4412.3328 T*S(rot)=     5.86 kcal/mol T*S(tot)=    18.13 kcal/mol
 sn=11  qrot/sn=    4011.2116 T*S(rot)=     5.80 kcal/mol T*S(tot)=    18.07 kcal/mol
 sn=12  qrot/sn=    3676.9440 T*S(rot)=     5.75 kcal/mol T*S(tot)=    18.02 kcal/mol

-------------------
GIBBS FREE ENTHALPY
-------------------

The Gibbs free enthalpy is G = H - T*S

Total enthalpy                    ...   -209.62293486 Eh
Total entropy correction          ...     -0.03002828 Eh    -18.84 kcal/mol
-----------------------------------------------------------------------
Final Gibbs free enthalpy         ...   -209.65296313 Eh

For completeness - the Gibbs free enthalpy minus the electronic energy
G-E(el)                           ...      0.05974417 Eh     37.49 kcal/mol

                             ****ORCA TERMINATED NORMALLY****
TOTAL RUN TIME: 0 days 0 hours 5 minutes 28 seconds 551 msec
